  8.5095251e-01   2.2326221e-05
 -2.6225603e+00   3.7627477e-05
  1.0600080e+00   2.9308946e-04
  1.6621867e+00   1.8003513e-04
 -9.8382220e-02   3.5794350e-05
  1.5346318e+00   5.3287251e-05
 -5.2059740e-01   4.1603307e-05
 -1.4697496e+00   6.0402879e-05
  2.6132202e+00   7.8192505e-05
 -1.2209557e+00   3.3530316e-04
 -2.0657095e-01   6.8217560e-05
  1.1629629e-02   2.6324607e-04
 -4.3630514e-02   9.4298575e-06
  4.3585824e-04   2.0699037e-05
  4.7168179e-04   7.0713754e-06
  9.9499093e-04   4.0848867e-05
 -5.8180714e-01   2.2999382e-05
 -5.3672702e-04   6.8061461e-05
 -1.8331283e-03   5.8183770e-05
  4.5875120e-01   3.1188026e-04
 -7.6944932e-02   6.6192937e-05
 -1.5834156e+00   1.1226955e-04
 -1.4405472e+00   3.9208579e-05
  5.1397561e-05   5.7367040e-05
 -1.3340844e+00   5.6416815e-05
  2.7831191e-02   6.1915489e-05
 -1.1937928e+00   5.1523704e-05
  2.2235633e-01   1.1420710e-04
  6.2226665e-01   3.9593724e-04
  2.0668890e-01   1.9433774e-04
  1.9459648e-04   4.8016682e-05
  5.4701534e-04   3.9919112e-05
 -7.7352110e-05   3.8249182e-05
  3.8797863e-02   2.2829559e-05
  6.0662370e-02   8.2769729e-05
  8.3693065e-04   9.0445406e-05
 -1.1353932e-03   4.9427752e-05
 -3.9968840e-03   4.8476904e-06
  3.3361671e-04   3.0628929e-05
 -9.0102088e-01   4.0522973e-06
 -7.0707686e-04   6.6993721e-06
  7.8830560e-04   3.7235186e-06
  1.9030711e-04   6.2900945e-05
 -1.9239608e-04   8.1206090e-05
 -3.7169468e-02   1.8309201e-04
  4.1626510e-04   8.0763512e-06
 -1.2153063e-04   2.2290564e-05
  3.5206380e-04   9.2949285e-06
 -2.1006701e-04   5.8221038e-05
  4.8456423e-05   3.4166820e-05
 -1.8923305e-04   8.0727023e-06
 -7.7945611e-04   4.3279197e-05
 -7.2835025e-04   4.3859764e-05
 -3.4402788e-04   1.0020362e-04
  1.7652115e-03   2.4855042e-05
  1.4042036e-04   1.3673164e-05
  1.0573937e-04   6.6200002e-05
  3.7818044e-04   4.1529136e-05
 -3.1384954e-04   7.4594609e-06
  6.0648110e-04   4.8777158e-05
  1.6671421e-04   7.9422221e-05
 -1.1402828e-04   6.2464605e-05
  2.3998355e-04   1.0375073e-04
  2.4494046e-04   1.9762547e-05
  8.6131108e-01   2.8157826e-06
  4.5466694e-04   3.5509416e-05
 -1.0125479e-03   1.4927251e-04
  1.3532487e-04   1.6426842e-06
  4.4601440e-04   3.1736105e-05
 -4.8720263e-04   2.0781619e-05
  8.1997155e-04   5.0653955e-05
 -1.1393502e-03   8.5096035e-06
 -2.5397836e-04   2.2357202e-05
  2.8407120e-04   3.0258820e-05
  2.4284000e-04   5.9624559e-05
  4.1987392e-04   2.4448158e-05
  1.1349337e-03   6.2385159e-05
 -3.4070716e-04   1.2623405e-04
  1.9144082e-04   1.7813922e-05
 -2.1727038e-04   1.4177599e-04
  6.0207606e-04   1.0060287e-04
  3.1941952e-04   2.2315171e-05
  2.4375366e-05   4.1747503e-06
 -9.0196752e-04   6.1486120e-05
 -3.5575038e-04   7.4682794e-05
  1.2790372e-04   7.3079260e-05
 -9.2435839e-05   1.0929838e-05
  3.8236403e-04   6.2300074e-05
  1.5511035e-03   1.0809302e-06
 -3.7454820e-06   1.1847739e-05
 -8.5920699e-05   5.9813745e-05
  5.0412037e-04   7.8840647e-05
  5.4173477e-05   5.2249281e-05
  2.4812238e-04   7.1870432e-05
  2.8981634e-05   4.1493910e-05
 -1.1466085e-03   7.5695483e-05
  1.3271342e-03   4.0690913e-05
 -4.1516864e-04   6.2013569e-06
 -4.2062745e-04   1.1610667e-05
 -1.3642428e-04   2.2599703e-05
  1.0949301e-04   9.6283096e-05
 -6.6895285e-05   4.4638575e-05
  2.0983689e-04   9.2722121e-06
 -3.4204826e-05   7.9780530e-06
 -9.7211087e-05   5.6198856e-05
 -1.5480553e-04   5.0981573e-05
  7.5671758e-04   8.1473075e-07
 -1.0906004e-04   2.8141932e-05
 -5.2997588e-05   4.7450167e-06
  1.6476269e-04   1.0102756e-05
  2.4646078e-04   1.7216547e-05
  2.7919945e-04   1.3546617e-04
 -1.2215158e-04   2.0686284e-05
  6.3958816e-04   3.5433430e-05
 -2.1069704e-05   8.4466865e-06
 -1.1042257e-04   2.5533309e-05
  1.6630098e-04   1.4006661e-04
 -8.0202890e-06   1.5885404e-05
 -7.2573748e-05   7.9899455e-06
  1.1327559e-03   8.1528880e-05
 -3.2805800e-04   3.7195154e-05
  3.0351779e-04   1.1354028e-05
 -1.0718600e-04   1.6858897e-04
  9.2660933e-04   6.9072594e-06
 -3.4394316e-04   3.8265145e-05
 -7.3920580e-04   1.7258167e-04
 -3.8429773e-01   1.4816052e-06
  6.2824134e-04   7.2740922e-06
 -2.1119795e-03   3.6686946e-05
  1.7866619e-04   3.5061566e-05
 -5.1463611e-04   5.3569951e-05
  2.0392299e-02   1.9651967e-05
  2.4371475e-03   2.4760304e-05
 -3.9449533e-05   1.7711676e-06
 -9.1991380e-02   3.4027616e-05
 -4.0072735e-04   6.5940854e-05
 -6.1507494e-04   4.4820114e-05
  5.1093224e-04   1.5388923e-05
  4.4393470e-04   2.5721572e-05
 -1.5323509e-03   3.5913813e-06
 -1.8164286e-04   3.0769577e-05
 -4.1480627e-04   3.3434495e-05
 -8.9146715e-04   1.0881793e-05
 -1.0726628e-03   9.0186288e-05
 -1.1633109e-04   1.2598551e-04
  1.2348649e-03   1.3351168e-04
 -3.7448143e-04   5.1922561e-05
 -2.6647194e-04   1.9605448e-06
 -2.9915440e-04   4.1276428e-05
  7.5560901e-03   4.7310114e-05
 -1.3871731e-04   2.9348221e-06
 -5.4758060e-04   4.8601614e-05
 -4.2428419e-05   1.7910768e-05
 -3.8138352e-04   4.2610885e-05
 -2.7997186e-04   8.3624320e-05
 -2.3088377e-04   2.1818599e-04
 -3.7385053e-05   2.1895112e-05
 -1.3212755e-03   4.4570101e-05
 -1.7198529e-04   9.1486996e-05
  1.0115094e-04   1.8924171e-05
  8.3583102e-05   8.8613109e-07
  3.6387111e-04   1.8811703e-05
  1.2915748e-03   3.6821097e-05
  5.9891178e-04   7.7780496e-05
 -7.6224860e-05   6.3573323e-05
 -1.4824860e-03   8.8247245e-05
 -1.1347587e-03   1.9967641e-05
 -2.1243568e-03   2.1778737e-06
  1.5103416e-02   9.5811825e-05
 -6.3541991e-04   7.3409552e-05
  5.7418289e-04   4.5230834e-05
  8.3439716e-04   1.5109158e-04
  1.8430763e-03   8.1419144e-05
  1.3639184e-04   2.8707216e-05
 -3.4604903e-04   1.8266639e-05
 -6.8784325e-04   1.0799165e-05
 -6.7906396e-05   2.2129521e-05
  3.1833036e-04   2.0805093e-05
  9.9022291e-04   1.2643805e-05
 -6.0685200e-04   1.1524168e-05
 -1.9489762e-05   4.5173692e-05
 -4.7329886e-04   4.6396628e-05
  2.6931425e-04   2.0534706e-05
  9.2068163e-05   1.1244380e-05
  2.2975303e-04   4.3343101e-05
  1.1546016e-04   2.8206543e-05
 -4.3067630e-04   4.4174747e-05
  6.5378536e-04   8.8325587e-06
  3.0561412e-05   9.4310408e-06
 -1.0193328e+00   5.2823352e-06
  1.0825711e+00   3.6872774e-05
 -1.1236284e+00   1.6304057e-05
 -2.2705829e+00   3.7896603e-05
  1.7707351e+00   1.1486170e-05
 -7.8041095e-04   1.2259723e-05
  1.4435370e+00   8.0159671e-06
  3.2362363e-01   1.1972225e-05
  2.7468121e+00   1.9879430e-05
  1.5993130e+00   3.5409954e-05
 -1.6720808e-01   7.1098443e-06
  5.7318386e-05   8.2161941e-06
 -3.9769787e-01   9.7560762e-05
  6.5571362e-01   2.5188823e-05
  6.3243983e-03   1.1287373e-04
  1.3346891e-02   1.3347267e-06
 -5.6143783e-02   1.2199312e-05
  2.0532622e+00   4.7398855e-05
 -1.5205252e-01   2.1585809e-05
  3.4597015e-01   3.3849035e-06
  1.2942797e-03   3.7270664e-05
  1.8848765e+00   3.0024537e-06
  1.6092643e+00   2.5008940e-06
 -9.9335563e-01   1.2418430e-05
 -1.5832670e+00   7.4957870e-06
 -1.9171264e-04   4.7317382e-05
 -1.4768221e+00   4.4301829e-05
  5.3343129e-01   1.9295523e-05
 -6.1583292e-01   7.9614452e-05
  2.5480249e-04   1.4649391e-04
  1.3973173e-01   8.8119668e-05
  1.6314871e-04   3.9215895e-05
  1.7206062e-01   3.1970677e-04
  2.1919385e-01   5.8904992e-05
 -3.0679375e-01   7.8360252e-05
  1.6069314e+00   5.2752450e-05
 -7.5447964e-03   1.4043748e-05
  3.7932692e-03   1.0492748e-04
  2.0874164e-04   3.3379172e-05
  6.7026578e-03   5.6108114e-05
  4.4771186e-01   8.6380642e-05
 -1.3069677e-03   2.4744837e-05
  1.4863523e+00   6.3806365e-05
 -2.7625411e+00   1.2425244e-04
  7.3149168e-01   8.0643949e-05
 -1.5799263e-03   1.0283315e-04
 -1.3283675e-04   9.6925680e-05
  3.7673253e-04   4.4167726e-05
 -1.0755950e+00   1.8275783e-05
  4.3266339e-04   1.9265786e-05
  3.3815540e-03   1.4046881e-04
 -3.4360509e-04   1.9624453e-05
  1.7861240e-04   8.4047188e-06
 -7.0236379e-01   4.0418028e-05
  7.9757898e-05   2.2702707e-05
 -2.5123110e-04   2.0379759e-05
  4.2939148e-05   2.8586144e-05
 -1.1480690e-06   1.6376680e-04
  2.5635149e-04   1.9286559e-05
  1.1163096e-04   1.0799935e-05
  5.1981787e-04   3.1011018e-06
 -9.1020389e-05   1.1906964e-04
 -7.4401370e-04   6.8347363e-06
 -6.7011635e-05   9.4038267e-05
  1.1329791e-04   1.9996001e-05
  6.4329780e-04   2.1351752e-05
  1.5120448e-04   1.5125459e-04
 -5.7619740e-04   1.8253534e-06
 -4.1992436e-04   3.1760097e-05
 -4.3309614e-04   1.2655692e-05
  5.1839673e-04   5.8188409e-05
  1.1236139e-05   1.9131403e-05
 -1.2312621e-03   2.2563143e-05
  1.3337356e-04   1.0421523e-05
  1.5932095e-04   8.0230719e-05
  6.1476586e-04   5.9579408e-05
  1.1196738e-04   2.0833097e-05
 -2.0477490e-04   4.1318817e-05
  2.0513203e-04   2.5596277e-05
  1.9438869e-04   3.4732093e-05
 -2.2103115e-05   2.2316530e-05
 -2.2141864e-04   1.0843544e-05
  6.0487865e-04   5.0371723e-06
 -2.8605264e-04   1.2681850e-05
 -3.7363749e-05   6.3761381e-06
  2.6461491e-04   2.8344815e-05
  1.2403718e-04   1.1462672e-04
  7.7869430e-05   9.8420253e-07
  4.5212917e-05   2.3505022e-06
  1.8312468e-04   7.3448420e-05
  8.6209489e-05   1.3820266e-05
 -2.6954213e-04   5.0513303e-05
 -8.5788156e-04   3.6315079e-05
  6.3998596e-05   5.6073110e-05
 -8.4267900e-04   3.8892154e-05
 -1.5017761e-04   8.4422216e-05
 -5.6249334e-04   1.2245965e-05
 -2.1419641e-04   4.1581337e-05
  2.0756688e-05   7.2642601e-06
 -4.2395326e-04   1.4543346e-05
 -1.5284303e-03   9.2028036e-05
  5.1709183e-05   1.6325001e-05
 -5.9578742e-04   8.9220295e-05
  1.1658666e-04   5.1963903e-05
 -4.1635553e-04   3.8224375e-06
 -1.6140749e-04   1.1020195e-05
  2.6462341e-04   4.9655664e-06
 -1.9305795e-04   6.9949259e-05
  1.2129938e-03   1.1457532e-05
 -7.8269548e-04   1.4128615e-04
  2.5720827e-05   2.8936922e-06
 -1.3742957e-04   4.6436668e-05
 -5.8485044e-04   8.2626129e-06
 -6.9943504e-05   1.5762440e-05
  5.6438160e-04   4.3746866e-05
  4.7882428e-04   2.4603301e-05
  6.5109401e-04   1.8477018e-05
  4.0383294e-04   6.6421053e-05
  2.4244991e-05   5.3921922e-05
 -1.2332239e-04   5.5879111e-05
 -2.2671821e-04   1.2823832e-05
  2.0948468e-05   3.9349547e-05
  1.2230023e-04   1.3244306e-04
  4.1140291e-05   5.5017708e-06
  1.4949433e-04   5.5724038e-05
 -1.1487663e-03   1.7222195e-05
 -3.8858742e-01   4.0408289e-05
  3.7145126e-01   5.1813247e-05
 -8.2301727e-04   6.2753636e-05
 -3.7925341e-04   1.2296538e-05
 -1.1162588e-03   2.2188186e-05
  1.0945739e-04   7.1109644e-05
 -3.1589087e-05   1.0649414e-05
 -3.0755749e-01   1.3364419e-06
 -5.7952767e-03   3.9068214e-05
 -1.6270949e-02   8.2311504e-05
 -1.7690798e-04   1.4512611e-05
  4.0204624e-05   5.5694318e-06
 -4.5535123e-04   1.7580137e-04
 -5.3848594e-01   3.2013727e-04
 -4.2092612e-05   1.1613854e-05
 -4.6053761e-01   8.4100939e-05
 -4.3114770e-04   1.3631862e-04
 -1.6365185e-03   2.9108996e-05
 -6.1320589e-04   7.1112190e-05
  4.1938443e-03   1.5117898e-05
 -2.8636667e-03   3.0093524e-05
 -3.8246053e-01   1.0516651e-04
  8.9015633e-01   7.8195924e-05
  2.6242847e-02   2.2435686e-04
  2.4041402e-01   7.8327968e-05
 -2.5187709e-04   2.2778895e-05
  6.1208359e-04   6.7108274e-05
 -3.8608600e-04   7.3377778e-06
  2.6338542e-04   3.4322170e-07
 -3.0776617e-04   2.3222528e-06
 -3.3848182e-06   2.1473541e-05
 -6.4134877e-04   2.5226638e-05
 -5.7651609e-04   3.1831627e-05
  9.6900018e-05   1.1133273e-05
  4.9571629e-04   7.7565994e-05
 -3.1046122e-05   4.6507499e-05
  1.2670368e-01   8.2070663e-05
  1.0382342e-03   8.5524262e-06
  3.4265482e-04   1.6028703e-06
 -1.0942206e-03   2.0144955e-05
  2.9754528e-04   3.1995973e-05
 -2.6518555e-04   1.2703792e-05
  1.9063514e-01   1.7154258e-05
  3.8962610e-02   2.6839753e-05
 -5.9604275e-01   5.6924644e-05
  1.8756816e-03   2.6384405e-05
 -4.8157602e-04   1.4517508e-05
 -9.4746669e-05   4.3560714e-05
  9.5290983e-05   2.3927398e-05
  3.3922071e-05   7.3543917e-05
 -3.2430739e-04   4.3670512e-05
 -1.9570709e-04   8.7281260e-06
 -9.7616512e-04   5.0015492e-06
  1.5992275e-04   6.8149479e-06
  5.1261921e-04   6.3347710e-05
 -5.8228860e-04   2.8509281e-05
 -1.6221976e-04   1.1219774e-05
  1.7157882e-04   9.9466852e-06
  8.2723470e-04   2.0201443e-05
 -1.3790299e-04   4.5456189e-05
  3.4889914e-04   7.9824094e-05
  1.1335635e-05   2.1579010e-05
  2.3374773e-04   5.8476151e-05
 -2.2380123e+00   1.0689013e-05
  5.9504027e+00   1.3400448e-05
  1.7400619e+00   9.3390299e-06
  1.2064157e+00   9.7634920e-06
  4.3507981e+00   1.4627253e-05
 -7.8778791e-01   7.7917657e-06
 -1.9208010e+00   4.0820407e-07
  5.7146420e+00   1.9040517e-05
  1.0734750e+00   5.4687371e-06
 -1.1890950e+00   1.7043609e-05
  1.1156921e+00   8.6670858e-05
  9.2474228e-01   6.6736706e-05
  6.0903013e-01   1.1291672e-05
 -1.4944791e+00   1.1696507e-05
 -5.0603372e-01   4.7600750e-04
 -5.6989700e-01   1.7669471e-04
 -6.2361807e-01   4.1948579e-06
 -6.5007055e-01   2.4176967e-05
 -7.7105314e-01   6.6463530e-05
  1.8312991e-01   6.6800203e-05
 -2.5001390e-02   1.0955258e-05
  6.3670906e-03   1.3973489e-05
 -1.4924934e+00   1.5261920e-05
  5.4820734e-01   1.5439822e-04
  7.3070794e-01   5.5019842e-05
 -1.6753010e+00   1.3148676e-05
  1.0983059e+00   4.2530892e-06
 -1.1450335e+00   7.3358329e-05
 -4.4216320e-02   6.8687121e-05
  1.2291731e+00   1.4575319e-04
  3.9489109e-06   1.1648201e-05
  2.2022595e+00   1.6372793e-05
 -1.5179056e+00   6.2097948e-05
  2.5560225e-03   9.8468270e-05
 -1.2593842e+00   3.7079049e-06
  6.9898301e-01   1.6718030e-05
 -2.6655787e-01   7.9482357e-05
 -1.1498796e-01   3.6608417e-05
 -1.1955251e-02   7.6421229e-06
  3.9279683e+00   1.6068490e-05
  3.4782145e+00   2.5898553e-05
  4.5530850e-01   7.2195646e-05
  8.3629054e-01   3.7986978e-05
  4.1978282e-01   3.7710586e-05
  1.3942586e-06   4.0908886e-05
  4.4617154e-06   2.3202523e-05
  2.5496489e-04   5.8089754e-05
  1.0273715e-03   1.4740272e-05
  4.0470970e-01   9.5641051e-05
 -3.2512733e-01   5.1903313e-05
  3.8279284e-04   9.8303579e-05
 -5.3603959e-01   4.0792249e-05
  9.5992436e-04   3.1169187e-05
  2.0605497e-04   3.1288873e-05
 -3.8387309e-04   2.0426643e-05
  5.7439919e-04   3.1060095e-05
 -1.2973227e-04   4.8698012e-06
  7.8890630e-04   7.9477595e-06
  4.1592200e-05   2.3804436e-05
 -1.4261554e-04   2.1803195e-05
  1.2939465e-05   3.5453446e-05
  6.0568564e-04   5.7790669e-05
  6.9632661e-04   8.7983099e-06
  8.8940406e-01   7.1239838e-06
  2.0583570e+00   8.9369023e-06
 -1.9129674e+00   1.5315447e-05
 -7.2994351e-01   7.9977126e-06
  4.0826735e+00   5.3679258e-05
  1.2846941e+00   2.5501435e-05
 -1.4013502e-01   1.1200670e-05
  1.9084239e+00   1.6939009e-07
 -1.3696382e+00   2.0888852e-05
  1.0386723e-01   1.1927505e-06
 -6.5481383e-01   8.8270986e-05
 -1.4481621e+00   5.8833040e-05
  1.0924041e+00   2.6006848e-05
 -3.1004853e+00   1.0301729e-06
 -4.5132309e-01   2.2621742e-05
  1.6805887e+00   2.1781279e-06
  1.4730130e+00   9.0897529e-06
 -2.0693026e+00   5.6535187e-06
  2.2278106e+00   2.7077933e-06
  8.8834423e-01   1.9721203e-05
  7.6369101e-01   1.1072002e-05
  1.2579446e+00   3.0315739e-06
 -1.3751935e+00   1.1947285e-05
 -1.0624871e-01   1.1358439e-06
 -5.0670081e-01   2.0214487e-05
 -9.6146423e-01   6.0355023e-06
 -2.2107368e+00   3.5770811e-06
 -1.0130453e+00   2.8234001e-06
 -7.6683885e-01   4.6359972e-05
 -9.1241131e-04   3.7523521e-05
 -1.6058224e-01   6.2022679e-07
 -1.7065815e+00   9.5782692e-05
 -7.0479339e-01   4.6187262e-05
 -1.4018286e+00   3.4882647e-05
 -4.7612327e-01   4.3716973e-05
 -2.6881588e-01   2.9692777e-05
 -8.4616345e-01   1.5710231e-05
  3.4829225e-02   1.5208399e-05
 -1.6223929e+00   4.9941224e-05
 -4.0814331e-01   1.8817833e-05
 -7.8023553e-01   1.7303935e-05
 -3.6818466e-01   1.8646738e-04
 -1.7424729e+00   1.5093609e-05
  1.7335129e+00   2.3747034e-05
 -6.0111111e-01   3.9989103e-05
 -9.5645351e-05   3.2549848e-05
  3.8592309e-01   2.1884935e-04
  6.1041597e-02   1.2414844e-04
 -2.5158658e+00   4.8705639e-05
  1.1890427e-03   3.8844195e-05
 -8.8990760e-01   7.5878743e-05
  5.7473277e-05   1.3044431e-04
 -2.2192071e-01   3.9728948e-05
  3.6289514e-04   7.0928427e-06
 -6.6365767e-04   1.5851487e-05
 -1.2286301e-04   7.9512785e-05
 -1.1156250e-04   8.0214151e-05
  1.4883479e-01   3.3823363e-04
 -4.5420308e-04   1.7527667e-06
  3.0572450e-05   6.0302668e-06
 -8.0971703e-02   3.0587750e-04
  2.5103829e-04   2.6993233e-05
  5.7424009e-01   1.3834579e-04
 -3.0762383e-01   8.7044618e-06
  2.4440162e+00   2.4368361e-05
  2.5742128e+00   3.4629917e-05
  4.1608210e+00   1.6364122e-05
  6.8976980e-01   9.1152551e-06
 -1.4922416e+00   5.1318941e-05
  1.6035426e+00   4.6778773e-06
  1.0584267e-01   3.8203172e-05
 -1.9890865e+00   2.1445437e-06
 -1.4999206e+00   9.5542702e-05
  2.4699537e-02   1.3309726e-04
  4.0696722e-01   4.8642301e-05
  8.5442811e-01   5.9581467e-05
  2.9681474e-01   5.2605533e-06
  3.2423504e-03   4.6966834e-05
  3.6302342e+00   9.9382043e-05
  1.0666950e+00   4.5834662e-05
 -5.1684028e-01   4.5304291e-06
  4.2237452e-01   1.5629716e-05
  1.7841144e+00   9.0567228e-06
  3.9925313e-01   2.5650672e-05
  1.9681377e+00   4.0863477e-05
 -3.5784142e-03   4.3055015e-06
  1.4375159e-04   6.3931009e-05
  2.0963609e+00   4.0798237e-05
 -8.3432037e-01   9.0411580e-05
 -2.7693105e-01   4.6009074e-05
  1.0236328e+00   1.0583783e-04
  1.6802937e+00   3.5473793e-05
  1.0036287e-01   1.2653301e-04
  2.0071743e+00   6.6857363e-05
  1.8802023e-01   1.2674589e-05
 -2.3358892e-01   6.0161459e-04
  2.0900655e-01   3.0493102e-05
 -5.6251121e-01   4.4373013e-05
  1.6819273e+00   1.8787687e-05
  8.7485823e-04   3.9794554e-06
  1.8013167e-03   2.3680406e-05
  1.1874517e+00   3.2442793e-05
  1.0342387e+00   1.8781362e-04
  4.9327216e-01   3.1817250e-05
  5.0958479e-04   1.7316939e-04
  9.9294096e-01   1.4324949e-04
 -1.7462626e-01   5.7244433e-05
  1.2276146e+00   4.7903843e-05
 -6.4662760e-05   4.1640160e-05
 -5.2710795e-03   1.8865767e-05
  1.3621695e-01   6.1863579e-04
 -5.2571559e-04   3.6901849e-05
 -1.4807864e-04   7.3584783e-06
  2.1201957e-04   1.2061268e-04
 -4.2425284e-01   3.1737549e-05
 -1.9757894e-01   3.7410409e-05
  1.2376218e-03   1.4112756e-04
  7.3490239e-04   1.0412239e-05
 -6.0433616e-05   1.5240807e-05
  2.9278695e-04   2.6729684e-05
 -4.6281177e-05   7.9567180e-05
 -6.9089656e-05   1.1179149e-05
 -5.5399654e-05   3.4077762e-05
 -2.9550624e-04   1.5189218e-05
  2.3970753e-02   6.1147526e-05
  5.5127149e-03   1.0812516e-04
 -2.4507034e+00   1.1828716e-06
  3.5873023e-01   1.9157174e-07
 -1.1694812e+00   1.1512581e-06
  1.3632108e+00   3.4406457e-06
 -2.6924906e+00   8.1819366e-05
 -1.2152205e+00   5.1747093e-06
 -2.3231180e+00   7.6604181e-07
  4.3411112e-01   5.9924287e-06
  1.7529361e-01   6.7403298e-06
 -6.3920468e-02   1.4213712e-05
 -1.4849606e-03   2.0537753e-05
  8.7843189e-05   2.2726073e-05
  1.1037423e-02   6.1336381e-05
  7.4698182e-04   2.8282540e-05
 -2.4966901e-04   3.3569959e-06
  1.6240810e-01   6.3588901e-05
  1.1000053e-03   6.3811617e-06
  3.2745718e-03   8.6395339e-06
  1.6531587e-01   6.9109723e-05
 -4.4944665e-01   5.3009821e-06
 -9.4714081e-01   9.5100935e-05
  1.6202775e-01   1.6501829e-06
  6.9387501e-01   1.7890325e-05
  1.2411151e+00   3.1299769e-05
 -2.4852851e-01   1.6642030e-05
 -6.7578691e-01   2.3135894e-05
  1.3990343e-01   3.5667064e-05
  3.4315366e-04   3.0734100e-05
  1.1786560e+00   1.4019768e-03
  2.6956040e-01   2.7488373e-04
 -1.0635008e-03   1.4893438e-05
  6.5348692e-02   1.2611842e-03
  6.3813734e-04   2.6834463e-05
  2.0188713e-03   7.7616951e-06
  1.1472157e-03   1.8694471e-05
  3.0467604e-04   2.3190034e-05
 -7.0313984e-01   2.7921060e-05
 -1.0836843e+00   7.1527224e-06
  2.6412990e+00   3.3545498e-06
 -9.9223179e-01   5.8032449e-05
 -8.7493855e-01   2.8513517e-07
  3.0544597e-01   1.3301196e-04
 -1.1309670e-01   4.7664566e-06
 -2.7687231e-04   9.2528526e-06
  1.5823243e+00   4.0597056e-06
  2.0559496e-01   1.5170277e-04
 -5.8903301e-01   7.6428718e-05
  4.1120579e-03   2.9358804e-05
 -2.8884879e-01   2.7867891e-05
 -9.7803229e-01   5.6128629e-06
  1.4379433e+00   7.0322916e-05
  2.6874745e-04   4.5169825e-05
  1.1210554e-01   1.8268588e-04
  7.9581416e-01   3.6929085e-04
 -1.5556176e-04   9.1805487e-06
 -6.2536186e-05   2.7781653e-05
 -4.2475021e-05   1.6809536e-05
 -1.1411436e-03   1.2258972e-05
 -2.7966799e-04   4.3939763e-05
  8.1226451e-04   7.2216113e-05
  2.0012639e-04   5.1611514e-05
 -2.8346735e-04   9.4421694e-06
  3.1094198e-04   2.5144178e-05
  4.9848583e-01   1.3216742e-05
  2.4925882e-03   3.6122234e-05
 -1.9287383e-05   2.9171060e-05
 -5.7611289e-04   9.5698306e-06
  3.4446918e-04   5.1836061e-05
 -1.6534585e-04   2.3493801e-06
  7.5637654e-04   2.6268821e-05
  5.3396344e-04   9.1304471e-05
  2.3191306e-03   2.7229225e-05
 -8.7440138e-05   1.0980252e-05
  3.1496241e-04   3.8920702e-05
  6.8997062e-05   4.8074435e-05
 -3.3354605e-05   2.1903972e-05
  9.7298698e-04   2.2725946e-05
 -6.0513707e-05   8.0130958e-06
 -1.8868952e-04   2.9673080e-05
  1.8462742e-04   1.6775137e-05
 -6.8776868e-04   7.2167531e-06
 -9.1179900e-05   1.2263074e-05
 -4.4664487e-04   3.2145836e-05
  3.4351781e-04   1.8236991e-05
  6.5023499e-07   1.4870364e-05
  1.6435325e-04   9.2812870e-06
 -2.5071487e-05   5.4383008e-06
 -1.8387051e-05   1.2460620e-05
 -1.2869234e-03   4.1074902e-05
 -5.3364708e-04   2.3844543e-05
  9.2903349e-05   3.7970556e-05
 -5.0304591e-04   2.2776549e-05
 -5.0843646e-05   4.6022418e-05
 -5.1224575e-04   1.1318217e-06
 -7.6631310e-05   5.6129670e-07
  7.1655057e-05   4.8893949e-06
  7.6204055e-04   6.0628150e-05
  4.5988560e-05   3.0669609e-05
  1.8693971e-03   1.8585135e-05
  4.5327359e-04   5.4649358e-06
 -2.4411088e-04   4.5537174e-05
  2.0068481e-03   5.5334989e-05
 -1.9209534e-04   1.5956239e-04
  8.1811607e-04   4.9173691e-06
 -1.4053127e-04   3.2023315e-06
 -9.4274414e-04   1.0570137e-05
 -1.2358648e-05   1.6911334e-05
  7.4302370e-04   3.1175423e-06
  2.0735248e-05   8.5061392e-06
  1.9674987e-04   1.1430653e-05
 -5.3744301e-05   1.6956894e-05
  2.7206974e-04   4.0542374e-05
  1.5700549e-04   2.4618897e-05
  4.4653250e-04   1.9740939e-05
  2.8699072e-04   5.1133473e-05
 -1.9106586e-04   7.7077686e-07
 -8.7370187e-05   2.4841162e-05
 -5.0290972e-05   6.6443054e-06
 -1.0129984e-03   2.2509748e-06
 -6.0821185e-04   1.5873995e-05
 -3.5129796e-04   9.8761477e-05
  1.2901357e-04   7.1006849e-05
 -1.0928297e-03   6.9548037e-06
  1.5246190e-04   1.9101573e-05
  1.5263299e-04   8.2346058e-05
 -2.1900998e-03   1.1249699e-04
  1.0317352e+00   8.5642108e-07
  2.0782108e+00   9.5658079e-06
  1.9714465e+00   2.0383159e-05
 -1.0480860e+00   7.3003753e-06
 -8.9489329e-01   3.1222691e-05
  4.0440907e+00   6.5485169e-06
  9.5811510e-01   2.0324007e-05
 -2.5677416e+00   3.0974938e-06
  7.0619300e-02   3.4354660e-05
 -8.9550710e-01   4.4219105e-05
  2.8399953e-01   1.0826690e-05
 -5.8991178e-03   6.1718289e-05
 -9.6290791e-01   1.1056447e-05
  3.4896393e+00   1.5659747e-06
  1.1389158e-01   1.0844253e-04
 -5.3411874e-04   1.0463363e-05
  7.4881166e-02   9.5589112e-06
  7.1041888e-01   5.9527060e-06
  1.1467095e-01   2.9537759e-06
 -2.1783705e-01   6.7862304e-05
  1.8323400e+00   1.4406816e-06
 -1.8223782e+00   5.4628283e-05
  1.8668596e+00   2.3929890e-05
 -2.9918074e-04   5.0681033e-06
 -5.5444950e-01   3.7032507e-05
 -7.8528088e-01   1.0066463e-05
 -1.2637573e-01   7.2973480e-06
 -4.0361828e-01   1.1624921e-05
 -1.2828200e+00   3.9125091e-05
  1.4087653e-01   2.0707086e-04
 -4.3211155e-02   8.3971514e-05
  1.5953989e+00   1.4982017e-05
  3.8654077e-01   6.6979184e-05
  2.4368660e+00   4.6275607e-05
 -6.5001887e-01   1.2563178e-05
  3.5029992e-01   5.9511880e-05
 -1.2927562e-01   1.9617351e-05
  3.1946734e-01   1.9053745e-05
 -4.4249073e-02   4.1889427e-05
  8.2666582e-01   3.2610300e-05
  1.4595242e+00   3.9561804e-05
 -2.6313767e-01   7.3420255e-05
 -5.6333822e-01   8.0011261e-05
 -2.9599422e-01   1.1094933e-05
 -5.4520345e-01   4.7910307e-05
 -4.0812571e-05   4.3755001e-05
 -7.8942627e-03   9.4968222e-05
  5.0531747e-04   5.6146546e-05
  6.1569279e-01   7.3669391e-05
 -4.7434674e-04   2.6295565e-05
  2.1994720e-01   2.9697156e-04
 -1.0778367e-04   3.3620345e-05
  3.0564575e-04   4.2244468e-05
  4.8588918e-04   6.4347478e-05
 -7.7048672e-04   1.2276690e-04
 -1.0943374e-03   2.9498147e-05
 -2.4427779e-04   3.2994943e-05
 -5.1456073e-04   1.5601689e-05
  3.4791188e-05   4.2508059e-06
 -1.1724371e-04   6.9150075e-05
  9.1098441e-04   4.4607543e-05
  1.5910590e-04   3.0054785e-05
  1.9613486e-05   4.1513369e-05
  1.7087322e+00   1.1961777e-05
  7.6101047e-01   2.0048212e-06
 -1.1340942e+00   1.2234251e-05
 -1.9464191e+00   2.7711470e-05
 -1.0378343e+00   5.5824774e-05
  7.1202928e-01   4.0317082e-05
  9.7723054e-03   9.3891113e-06
  6.3106924e-02   5.1328925e-06
 -2.1830736e-02   1.2730870e-05
  5.3548402e-01   2.1578275e-04
  3.7483990e-04   1.7439683e-06
  1.0871670e-04   2.8703011e-05
 -6.8721659e-02   4.8053873e-05
 -1.8811642e-04   3.4653800e-05
 -4.1901157e-04   4.5282427e-06
 -1.4770451e-05   3.2187600e-05
  8.5177004e-02   1.7754751e-04
 -2.0465844e-03   3.8319726e-05
 -5.4592057e-04   6.1872917e-05
  2.6523639e-03   4.9441631e-05
  3.5067913e-04   3.5383677e-05
 -8.3183326e-02   2.3471228e-05
  2.2868682e-01   5.3047290e-05
 -5.9264473e-04   6.2950188e-05
 -8.4518097e-02   6.4225074e-05
  1.7571222e-04   8.0941805e-05
  7.0640832e-05   6.2597610e-05
  4.0754736e-03   6.4513297e-05
 -9.1036130e-04   6.4861160e-05
 -1.4913778e-01   1.8505064e-04
  1.7405256e-04   1.0872403e-04
 -2.5153530e-03   2.6532530e-04
 -4.8312347e-04   2.5066885e-05
 -2.0524794e-01   1.3231501e-04
 -9.0529524e-05   5.6707649e-05
  3.8605448e-04   4.7105113e-06
 -1.6011974e-04   4.0531711e-05
  3.9993572e-01   4.9528204e-05
 -7.8006636e-04   1.1656877e-05
  2.1972428e-03   4.8064438e-05
 -1.1946343e-01   7.8078010e-05
  4.9354643e-01   1.0737310e-05
  2.8667347e+00   2.4136530e-06
 -8.3500363e-02   6.8637230e-05
 -2.6373830e-04   5.2857624e-05
  3.9639740e-04   4.6724523e-05
 -2.8235238e-04   1.6161510e-05
 -2.8926105e-04   1.0943109e-04
 -6.3694455e-02   1.1539675e-04
 -5.1193981e-04   6.2035768e-05
 -1.0667277e-04   7.5531396e-05
  1.5923368e-04   6.8053455e-06
 -4.2833693e-04   5.6724715e-05
  9.2664952e-05   1.7679497e-05
 -2.9367817e-04   1.6153950e-05
  8.4223582e-05   3.1931460e-05
  7.1745901e-04   7.1296010e-05
  1.1222212e-04   8.4321255e-05
  4.8904283e-05   7.5443750e-05
 -4.4543092e-05   3.4835626e-05
  2.5109603e-04   3.7486883e-05
 -5.2223393e-05   3.0403766e-05
  4.4501649e-04   7.4654986e-06
  2.0281062e+00   2.1269343e-06
  8.9115196e-01   2.3002117e-06
  4.7161740e-01   4.1115704e-06
  2.3288121e+00   1.4982534e-06
  2.1587282e-01   2.0775085e-05
 -1.0769066e+00   2.6213529e-05
 -2.4500628e-01   2.6756961e-05
  6.1608809e-01   3.9689581e-05
  1.6161469e-01   2.1290442e-05
  2.0992734e+00   6.4986598e-05
 -1.1412153e-02   5.2890453e-05
  7.0312381e-04   1.5239103e-05
 -4.0315452e-01   4.5700395e-05
 -2.7061400e-01   1.9677531e-04
  4.5072663e-01   1.2840299e-04
  2.3276469e-04   7.2966000e-06
 -2.7419016e-01   1.1982366e-04
  1.0140616e-01   2.1227350e-04
  1.4399957e-02   5.8034497e-05
 -6.0132584e-03   1.6298239e-06
 -1.4754944e-01   6.2582410e-05
  9.0976059e-01   5.5508599e-06
  2.0290141e+00   5.9171845e-05
 -1.1891292e+00   1.0559546e-05
 -2.3419945e-01   4.5002944e-06
  2.1873194e-01   2.4420324e-05
  3.4053218e-02   1.1619822e-05
  4.8188040e-01   9.6788346e-05
 -1.5144000e+00   3.1421219e-05
 -8.3637214e-01   2.0205754e-05
  3.6035419e-02   2.1481827e-04
 -6.1955416e-01   1.0224020e-03
 -2.7096573e-01   8.9438329e-04
 -8.8126916e-01   5.9700280e-05
 -1.3222145e-03   1.2996961e-05
  1.1151955e-01   3.0447818e-05
  5.0910034e+00   5.5249420e-05
  2.7938840e-01   1.7894732e-05
 -2.1881082e+00   2.4524797e-06
  1.0104924e+00   4.2155016e-06
 -7.9780269e-01   5.3009549e-06
  1.8183923e+00   4.5173660e-05
  2.3823256e+00   1.5389789e-05
  7.5872397e-01   1.3876654e-04
  7.2589219e-01   6.9375619e-07
 -2.3579913e-01   1.9100845e-04
  1.9248176e-01   1.7492057e-04
  2.3778659e-01   1.5172025e-03
  2.6414788e-03   1.0238507e-05
  2.4830089e+00   3.8728514e-05
  4.2078074e-04   1.0666523e-04
 -1.2575561e-04   5.8806167e-05
 -6.9868095e-02   3.4580247e-05
  2.3709054e-04   1.7554041e-04
  2.4682279e-06   4.6246820e-05
 -1.2916396e-04   7.1259463e-05
  9.8522185e-05   1.0704885e-04
  7.9269259e-04   9.8190336e-05
 -2.7196180e-05   2.8487275e-06
 -1.0848775e-04   1.2822310e-05
 -4.5157011e-04   2.4014604e-04
 -2.9450455e-05   1.6957241e-05
  2.9835213e-04   3.2438318e-05
 -3.4369051e-03   3.7755881e-06
  1.2221977e-03   1.5695099e-05
  1.1946675e-04   2.1174050e-05
 -7.3297771e-05   1.1224034e-05
 -1.8617274e-04   1.2463541e-05
  1.9841684e-05   1.0935901e-05
  1.1410901e-04   8.4765561e-06
 -9.9530420e-04   5.8876292e-05
  2.9654798e-04   5.0949393e-06
  1.8086334e-04   9.2242117e-06
 -1.6354707e-04   7.8786426e-05
  5.1058590e-04   7.7600904e-05
 -1.3735325e-06   5.6462151e-05
  5.0532195e-05   2.6845219e-05
 -2.2933098e-05   3.7431411e-05
 -1.2697788e-05   4.2045715e-05
  2.7931697e-04   4.1608360e-05
  3.4391647e-04   6.0071015e-05
 -2.5307279e-04   9.9559125e-05
 -1.9192389e-04   1.5073094e-05
 -6.4244955e-06   1.8360268e-05
  1.3071502e-04   3.3078974e-05
  8.7607710e-05   1.4200274e-04
  5.7774789e-05   1.8350827e-05
  3.9662723e-04   2.4646701e-05
  1.8236939e-04   3.8330772e-06
 -5.3617601e-05   1.3333612e-05
  2.5037334e-05   3.3071945e-05
  1.3504384e-04   3.9431477e-05
  3.1992141e-04   8.7845387e-05
 -1.3377322e-04   1.0668021e-04
  1.3456354e-03   8.1292099e-05
  2.2752634e-04   7.5378357e-06
  3.5303409e-04   1.7206328e-05
 -1.1961548e-04   6.2431842e-05
 -5.1687780e-04   2.3221628e-05
 -2.9884070e-05   1.5762475e-05
  1.9099013e-04   5.0804043e-05
 -4.1051011e-04   2.6049640e-05
  6.0391647e-04   2.0988882e-05
 -1.6596021e-04   8.9289824e-05
 -6.6694303e-04   7.8701978e-06
 -1.9344683e-04   3.9900176e-05
  1.8540077e-04   5.9398249e-06
 -1.4803262e-05   5.7598481e-05
  3.2157128e-04   1.0226357e-04
 -8.4780921e-05   8.1354365e-06
 -1.2202658e-04   7.8308767e-06
 -2.7250257e-04   1.6048134e-04
 -1.0348454e-03   8.9017221e-06
  3.3156536e-04   1.6201640e-05
 -1.1094513e-04   9.6668555e-05
 -3.2631529e-04   2.3092185e-05
  1.2940574e-03   1.1092560e-05
  1.4803316e-04   6.3691950e-06